#System CNT_10x0  

11024    atoms 
8408     bonds  
8678     angles 

4    atom types 
1    bond types  
1    angle types  

0.0 97.9473 xlo xhi 
0.0 97.9473 ylo yhi 
0.0 97.9473 zlo zhi 

Masses 

1 12.011000  # C
2 15.999400  # O OH2
3 1.0080000  # H OH2 
4 0.0000000  # M OH2



Atoms 

1 1 1 0.0000 52.80 48.93 39.21
2 1 1 0.0000 52.67 50.12 39.90
3 1 1 0.0000 52.04 51.14 39.21
4 1 1 0.0000 51.23 52.02 39.91
5 1 1 0.0000 50.13 52.51 39.22
6 1 1 0.0000 48.96 52.78 39.91
7 1 1 0.0000 47.77 52.56 39.23
8 1 1 0.0000 46.67 52.08 39.93
9 1 1 0.0000 45.83 51.22 39.24
10 1 1 0.0000 45.22 50.18 39.93
11 1 1 0.0000 45.09 48.98 39.23
12 1 1 0.0000 45.26 47.79 39.93
13 1 1 0.0000 45.87 46.75 39.23
14 1 1 0.0000 46.66 45.84 39.92
15 1 1 0.0000 47.75 45.32 39.22
16 1 1 0.0000 48.93 45.10 39.91
17 1 1 0.0000 50.10 45.37 39.21
18 1 1 0.0000 51.21 45.85 39.90
19 1 1 0.0000 52.04 46.71 39.20
20 1 1 0.0000 52.67 47.73 39.90
21 1 1 0.0000 52.69 50.12 41.30
22 1 1 0.0000 52.11 51.19 42.00
23 1 1 0.0000 51.24 52.04 41.30
24 1 1 0.0000 50.17 52.60 42.00
25 1 1 0.0000 48.97 52.80 41.31
26 1 1 0.0000 47.78 52.62 42.01
27 1 1 0.0000 46.69 52.08 41.32
28 1 1 0.0000 45.83 51.23 42.02
29 1 1 0.0000 45.24 50.17 41.33
30 1 1 0.0000 45.07 48.97 42.02
31 1 1 0.0000 45.25 47.77 41.32
32 1 1 0.0000 45.81 46.69 42.01
33 1 1 0.0000 46.67 45.83 41.31
34 1 1 0.0000 47.75 45.28 42.01
35 1 1 0.0000 48.95 45.09 41.31
36 1 1 0.0000 50.15 45.29 41.99
37 1 1 0.0000 51.24 45.82 41.30
38 1 1 0.0000 52.12 46.66 41.99
39 1 1 0.0000 52.69 47.73 41.30
40 1 1 0.0000 52.89 48.93 42.00
41 1 1 0.0000 52.11 51.20 43.39
42 1 1 0.0000 51.25 52.05 44.09
43 1 1 0.0000 50.17 52.60 43.40
44 1 1 0.0000 48.98 52.81 44.09
45 1 1 0.0000 47.78 52.62 43.40
46 1 1 0.0000 46.71 52.07 44.10
47 1 1 0.0000 45.84 51.23 43.41
48 1 1 0.0000 45.29 50.15 44.11
49 1 1 0.0000 45.09 48.96 43.41
50 1 1 0.0000 45.30 47.77 44.10
51 1 1 0.0000 45.83 46.68 43.41
52 1 1 0.0000 46.69 45.83 44.10
53 1 1 0.0000 47.77 45.28 43.40
54 1 1 0.0000 48.97 45.10 44.09
55 1 1 0.0000 50.16 45.29 43.39
56 1 1 0.0000 51.26 45.82 44.08
57 1 1 0.0000 52.13 46.66 43.39
58 1 1 0.0000 52.69 47.73 44.08
59 1 1 0.0000 52.89 48.93 43.39
60 1 1 0.0000 52.68 50.13 44.08
61 1 1 0.0000 51.24 52.05 45.48
62 1 1 0.0000 50.17 52.63 46.18
63 1 1 0.0000 48.98 52.82 45.49
64 1 1 0.0000 47.79 52.63 46.18
65 1 1 0.0000 46.71 52.07 45.49
66 1 1 0.0000 45.86 51.22 46.19
67 1 1 0.0000 45.29 50.15 45.50
68 1 1 0.0000 45.09 48.96 46.19
69 1 1 0.0000 45.30 47.77 45.49
70 1 1 0.0000 45.85 46.69 46.18
71 1 1 0.0000 46.70 45.83 45.49
72 1 1 0.0000 47.78 45.28 46.18
73 1 1 0.0000 48.98 45.10 45.48
74 1 1 0.0000 50.17 45.29 46.17
75 1 1 0.0000 51.26 45.81 45.47
76 1 1 0.0000 52.13 46.66 46.17
77 1 1 0.0000 52.69 47.73 45.48
78 1 1 0.0000 52.87 48.93 46.17
79 1 1 0.0000 52.67 50.13 45.48
80 1 1 0.0000 52.09 51.19 46.17
81 1 1 0.0000 50.17 52.63 47.57
82 1 1 0.0000 48.98 52.84 48.27
83 1 1 0.0000 47.79 52.64 47.58
84 1 1 0.0000 46.71 52.08 48.27
85 1 1 0.0000 45.86 51.22 47.58
86 1 1 0.0000 45.29 50.15 48.27
87 1 1 0.0000 45.09 48.96 47.58
88 1 1 0.0000 45.28 47.77 48.27
89 1 1 0.0000 45.85 46.70 47.58
90 1 1 0.0000 46.71 45.85 48.27
91 1 1 0.0000 47.79 45.30 47.57
92 1 1 0.0000 48.98 45.11 48.27
93 1 1 0.0000 50.17 45.29 47.57
94 1 1 0.0000 51.26 45.82 48.26
95 1 1 0.0000 52.13 46.66 47.56
96 1 1 0.0000 52.69 47.74 48.25
97 1 1 0.0000 52.87 48.93 47.56
98 1 1 0.0000 52.66 50.13 48.25
99 1 1 0.0000 52.09 51.19 47.56
100 1 1 0.0000 51.24 52.06 48.26
101 1 1 0.0000 48.98 52.83 49.66
102 1 1 0.0000 47.79 52.64 50.35
103 1 1 0.0000 46.71 52.09 49.66
104 1 1 0.0000 45.84 51.25 50.35
105 1 1 0.0000 45.29 50.17 49.66
106 1 1 0.0000 45.10 48.97 50.35
107 1 1 0.0000 45.28 47.77 49.66
108 1 1 0.0000 45.84 46.70 50.36
109 1 1 0.0000 46.70 45.85 49.66
110 1 1 0.0000 47.78 45.32 50.36
111 1 1 0.0000 48.98 45.12 49.66
112 1 1 0.0000 50.17 45.30 50.35
113 1 1 0.0000 51.26 45.83 49.65
114 1 1 0.0000 52.12 46.68 50.34
115 1 1 0.0000 52.68 47.75 49.65
116 1 1 0.0000 52.87 48.94 50.34
117 1 1 0.0000 52.67 50.13 49.65
118 1 1 0.0000 52.12 51.21 50.34
119 1 1 0.0000 51.25 52.06 49.65
120 1 1 0.0000 50.17 52.61 50.35
121 1 1 0.0000 47.79 52.63 51.75
122 1 1 0.0000 46.70 52.10 52.44
123 1 1 0.0000 45.83 51.25 51.74
124 1 1 0.0000 45.28 50.18 52.43
125 1 1 0.0000 45.10 48.98 51.74
126 1 1 0.0000 45.29 47.79 52.44
127 1 1 0.0000 45.84 46.71 51.75
128 1 1 0.0000 46.70 45.86 52.45
129 1 1 0.0000 47.78 45.32 51.75
130 1 1 0.0000 48.98 45.14 52.44
131 1 1 0.0000 50.17 45.31 51.74
132 1 1 0.0000 51.26 45.83 52.43
133 1 1 0.0000 52.13 46.67 51.74
134 1 1 0.0000 52.69 47.74 52.43
135 1 1 0.0000 52.88 48.94 51.73
136 1 1 0.0000 52.68 50.13 52.43
137 1 1 0.0000 52.13 51.20 51.73
138 1 1 0.0000 51.26 52.05 52.43
139 1 1 0.0000 50.18 52.59 51.74
140 1 1 0.0000 48.99 52.78 52.44
141 1 1 0.0000 46.71 52.09 53.83
142 1 1 0.0000 45.83 51.26 54.52
143 1 1 0.0000 45.27 50.18 53.82
144 1 1 0.0000 45.07 48.99 54.52
145 1 1 0.0000 45.28 47.80 53.83
146 1 1 0.0000 45.85 46.73 54.53
147 1 1 0.0000 46.70 45.88 53.84
148 1 1 0.0000 47.78 45.33 54.53
149 1 1 0.0000 48.98 45.14 53.84
150 1 1 0.0000 50.17 45.30 54.53
151 1 1 0.0000 51.26 45.83 53.83
152 1 1 0.0000 52.14 46.66 54.52
153 1 1 0.0000 52.69 47.74 53.82
154 1 1 0.0000 52.87 48.93 54.52
155 1 1 0.0000 52.68 50.13 53.82
156 1 1 0.0000 52.14 51.21 54.52
157 1 1 0.0000 51.28 52.06 53.82
158 1 1 0.0000 50.20 52.60 54.52
159 1 1 0.0000 49.00 52.78 53.83
160 1 1 0.0000 47.80 52.61 54.53
161 1 1 0.0000 45.82 51.26 55.91
162 1 1 0.0000 45.23 50.20 56.60
163 1 1 0.0000 45.05 48.99 55.91
164 1 1 0.0000 45.25 47.80 56.61
165 1 1 0.0000 45.84 46.74 55.92
166 1 1 0.0000 46.70 45.89 56.62
167 1 1 0.0000 47.78 45.34 55.93
168 1 1 0.0000 48.98 45.13 56.62
169 1 1 0.0000 50.18 45.29 55.93
170 1 1 0.0000 51.26 45.83 56.62
171 1 1 0.0000 52.13 46.67 55.92
172 1 1 0.0000 52.68 47.75 56.61
173 1 1 0.0000 52.87 48.94 55.91
174 1 1 0.0000 52.71 50.15 56.60
175 1 1 0.0000 52.15 51.22 55.91
176 1 1 0.0000 51.31 52.09 56.61
177 1 1 0.0000 50.21 52.61 55.92
178 1 1 0.0000 49.01 52.76 56.62
179 1 1 0.0000 47.81 52.59 55.92
180 1 1 0.0000 46.71 52.07 56.62
181 1 1 0.0000 45.20 50.20 58.00
182 1 1 0.0000 45.08 49.00 58.69
183 1 1 0.0000 45.26 47.81 58.01
184 1 1 0.0000 45.89 46.79 58.71
185 1 1 0.0000 46.71 45.90 58.02
186 1 1 0.0000 47.79 45.39 58.72
187 1 1 0.0000 48.97 45.14 58.02
188 1 1 0.0000 50.14 45.38 58.72
189 1 1 0.0000 51.25 45.85 58.02
190 1 1 0.0000 52.05 46.74 58.71
191 1 1 0.0000 52.66 47.77 58.01
192 1 1 0.0000 52.82 48.97 58.70
193 1 1 0.0000 52.72 50.16 58.00
194 1 1 0.0000 52.16 51.23 58.69
195 1 1 0.0000 51.32 52.09 58.00
196 1 1 0.0000 50.20 52.53 58.70
197 1 1 0.0000 49.01 52.73 58.01
198 1 1 0.0000 47.83 52.49 58.71
199 1 1 0.0000 46.71 52.05 58.01
200 1 1 0.0000 45.83 51.22 58.70
201 2 2 0.0000 30.19 43.90 36.33
202 2 3 0.5564 30.03 43.49 37.18
203 2 3 0.5564 29.33 43.93 35.91
204 2 4 -1.1128 30.06 43.85 36.39
205 3 2 0.0000 52.40 64.44 44.50
206 3 3 0.5564 53.36 64.51 44.56
207 3 3 0.5564 52.09 65.34 44.63
208 3 4 -1.1128 52.49 64.57 44.52
209 4 2 0.0000 48.98 56.34 52.00
210 4 3 0.5564 49.79 55.97 51.64
211 4 3 0.5564 49.11 57.28 51.97
212 4 4 -1.1128 49.11 56.41 51.95
213 5 2 0.0000 39.66 42.82 48.93
214 5 3 0.5564 38.74 42.68 49.17
215 5 3 0.5564 39.74 43.76 48.79
216 5 4 -1.1128 39.55 42.92 48.95
217 6 2 0.0000 65.50 51.88 52.90
218 6 3 0.5564 66.35 51.88 53.35
219 6 3 0.5564 65.73 51.76 51.97
220 6 4 -1.1128 65.64 51.86 52.83
221 7 2 0.0000 56.11 50.84 29.76
222 7 3 0.5564 56.32 51.08 28.85
223 7 3 0.5564 55.31 51.33 29.96
224 7 4 -1.1128 56.03 50.94 29.66
225 8 2 0.0000 37.64 41.63 54.56
226 8 3 0.5564 37.87 40.90 55.14
227 8 3 0.5564 37.80 41.30 53.68
228 8 4 -1.1128 37.69 41.49 54.52
229 9 2 0.0000 47.12 39.36 48.65
230 9 3 0.5564 47.49 40.24 48.63
231 9 3 0.5564 47.82 38.79 48.33
232 9 4 -1.1128 47.26 39.40 48.61
233 10 2 0.0000 32.15 33.59 50.82
234 10 3 0.5564 31.39 34.00 51.24
235 10 3 0.5564 32.68 33.27 51.55
236 10 4 -1.1128 32.12 33.60 50.97
237 11 2 0.0000 36.33 50.77 66.16
238 11 3 0.5564 35.38 50.77 66.01
239 11 3 0.5564 36.42 50.52 67.08
240 11 4 -1.1128 36.22 50.74 66.26
241 12 2 0.0000 37.34 43.60 45.19
242 12 3 0.5564 36.70 43.77 45.89
243 12 3 0.5564 37.41 42.65 45.16
244 12 4 -1.1128 37.27 43.50 45.28
245 13 2 0.0000 52.40 33.55 34.04
246 13 3 0.5564 52.54 33.34 34.97
247 13 3 0.5564 52.60 34.48 33.97
248 13 4 -1.1128 52.44 33.64 34.15
249 14 2 0.0000 49.48 60.19 30.03
250 14 3 0.5564 49.15 59.49 30.60
251 14 3 0.5564 49.04 60.98 30.33
252 14 4 -1.1128 49.38 60.20 30.14
253 15 2 0.0000 58.63 47.56 26.29
254 15 3 0.5564 58.79 48.07 27.08
255 15 3 0.5564 59.29 46.86 26.33
256 15 4 -1.1128 58.74 47.53 26.40
257 16 2 0.0000 66.53 37.74 58.38
258 16 3 0.5564 66.56 38.20 57.54
259 16 3 0.5564 66.73 36.83 58.16
260 16 4 -1.1128 66.56 37.68 58.24
261 17 2 0.0000 52.61 30.28 38.41
262 17 3 0.5564 52.57 31.12 37.96
263 17 3 0.5564 52.65 29.63 37.71
264 17 4 -1.1128 52.61 30.31 38.26
265 18 2 0.0000 53.70 58.30 39.33
266 18 3 0.5564 54.11 57.49 39.02
267 18 3 0.5564 53.25 58.65 38.56
268 18 4 -1.1128 53.69 58.24 39.18
269 19 2 0.0000 42.72 55.14 32.33
270 19 3 0.5564 42.53 54.20 32.36
271 19 3 0.5564 43.68 55.18 32.32
272 19 4 -1.1128 42.83 55.02 32.33
273 20 2 0.0000 57.57 31.11 70.19
274 20 3 0.5564 57.16 31.84 69.73
275 20 3 0.5564 56.90 30.43 70.21
276 20 4 -1.1128 57.43 31.12 70.13
277 21 2 0.0000 32.23 52.75 38.83
278 21 3 0.5564 32.06 51.92 39.28
279 21 3 0.5564 33.10 52.63 38.44
280 21 4 -1.1128 32.33 52.62 38.84
281 22 2 0.0000 42.44 51.36 52.67
282 22 3 0.5564 42.24 50.42 52.63
283 22 3 0.5564 43.35 51.42 52.38
284 22 4 -1.1128 42.53 51.24 52.63
285 23 2 0.0000 50.70 60.40 42.12
286 23 3 0.5564 50.90 59.51 41.83
287 23 3 0.5564 51.38 60.94 41.71
288 23 4 -1.1128 50.82 60.35 42.02
289 24 2 0.0000 39.48 67.60 44.34
290 24 3 0.5564 39.03 66.95 43.79
291 24 3 0.5564 38.80 67.93 44.93
292 24 4 -1.1128 39.33 67.56 44.34
293 25 2 0.0000 55.33 38.30 48.21
294 25 3 0.5564 55.40 38.97 48.89
295 25 3 0.5564 56.17 37.83 48.26
296 25 4 -1.1128 55.45 38.33 48.31
297 26 2 0.0000 61.75 41.03 44.10
298 26 3 0.5564 61.79 40.11 43.84
299 26 3 0.5564 62.36 41.47 43.51
300 26 4 -1.1128 61.84 40.96 43.99
301 27 2 0.0000 50.34 45.67 22.20
302 27 3 0.5564 49.99 46.32 21.60
303 27 3 0.5564 49.68 45.59 22.89
304 27 4 -1.1128 50.21 45.75 22.21
305 28 2 0.0000 50.91 64.23 34.70
306 28 3 0.5564 51.21 65.13 34.58
307 28 3 0.5564 51.26 63.97 35.55
308 28 4 -1.1128 51.00 64.31 34.80
309 29 2 0.0000 31.68 40.95 31.07
310 29 3 0.5564 31.63 40.51 30.22
311 29 3 0.5564 32.15 41.76 30.89
312 29 4 -1.1128 31.73 41.00 30.93
313 30 2 0.0000 33.86 37.01 55.21
314 30 3 0.5564 33.73 36.77 56.12
315 30 3 0.5564 33.22 37.70 55.04
316 30 4 -1.1128 33.76 37.07 55.31
317 31 2 0.0000 44.17 56.86 28.99
318 31 3 0.5564 44.23 57.68 28.50
319 31 3 0.5564 44.62 56.22 28.45
320 31 4 -1.1128 44.23 56.89 28.85
321 32 2 0.0000 37.55 39.83 33.01
322 32 3 0.5564 38.04 40.63 33.18
323 32 3 0.5564 37.46 39.79 32.06
324 32 4 -1.1128 37.60 39.93 32.91
325 33 2 0.0000 44.78 61.52 64.84
326 33 3 0.5564 44.90 61.66 65.78
327 33 3 0.5564 43.89 61.86 64.67
328 33 4 -1.1128 44.68 61.59 64.94
329 34 2 0.0000 41.84 59.22 49.07
330 34 3 0.5564 41.62 59.47 48.17
331 34 3 0.5564 41.13 58.63 49.33
332 34 4 -1.1128 41.71 59.18 48.99
333 35 2 0.0000 64.08 39.31 40.17
334 35 3 0.5564 64.73 39.69 39.58
335 35 3 0.5564 63.43 38.92 39.59
336 35 4 -1.1128 64.08 39.31 40.01
337 36 2 0.0000 32.88 39.23 42.54
338 36 3 0.5564 32.39 39.26 43.37
339 36 3 0.5564 32.66 38.38 42.17
340 36 4 -1.1128 32.78 39.12 42.60
341 37 2 0.0000 56.88 57.11 55.93
342 37 3 0.5564 57.11 57.76 56.58
343 37 3 0.5564 57.70 56.90 55.49
344 37 4 -1.1128 57.02 57.17 55.96
345 38 2 0.0000 65.44 43.97 61.80
346 38 3 0.5564 64.65 43.97 61.26
347 38 3 0.5564 65.38 44.77 62.32
348 38 4 -1.1128 65.33 44.07 61.80
349 39 2 0.0000 45.22 39.75 44.78
350 39 3 0.5564 44.41 40.03 44.36
351 39 3 0.5564 45.08 39.90 45.71
352 39 4 -1.1128 45.10 39.81 44.85
353 40 2 0.0000 59.77 35.82 26.52
354 40 3 0.5564 60.23 36.60 26.83
355 40 3 0.5564 58.97 35.79 27.04
356 40 4 -1.1128 59.72 35.92 26.63
357 41 2 0.0000 37.87 48.30 70.58
358 41 3 0.5564 38.31 48.78 71.29
359 41 3 0.5564 38.56 48.15 69.94
360 41 4 -1.1128 38.02 48.34 70.59
361 42 2 0.0000 31.61 54.33 68.35
362 42 3 0.5564 30.66 54.21 68.29
363 42 3 0.5564 31.93 54.14 67.46
364 42 4 -1.1128 31.53 54.29 68.22
365 43 2 0.0000 47.70 33.24 23.38
366 43 3 0.5564 48.54 33.03 22.97
367 43 3 0.5564 47.07 32.68 22.93
368 43 4 -1.1128 47.73 33.14 23.27
369 44 2 0.0000 51.81 57.99 41.30
370 44 3 0.5564 51.69 57.05 41.22
371 44 3 0.5564 52.44 58.21 40.60
372 44 4 -1.1128 51.88 57.90 41.19
373 45 2 0.0000 35.75 52.34 32.46
374 45 3 0.5564 36.39 51.65 32.27
375 45 3 0.5564 35.22 51.99 33.17
376 45 4 -1.1128 35.76 52.21 32.53
377 46 2 0.0000 49.32 48.63 43.09
378 46 3 0.5564 49.98 47.95 43.17
379 46 3 0.5564 49.08 48.86 43.99
380 46 4 -1.1128 49.37 48.57 43.22
381 47 2 0.0000 63.54 32.85 31.77
382 47 3 0.5564 63.56 32.37 32.60
383 47 3 0.5564 63.17 32.23 31.15
384 47 4 -1.1128 63.49 32.71 31.80
385 48 2 0.0000 38.49 57.18 53.32
386 48 3 0.5564 38.05 56.40 53.00
387 48 3 0.5564 38.33 57.18 54.27
388 48 4 -1.1128 38.41 57.08 53.41
389 49 2 0.0000 48.66 41.80 42.04
390 49 3 0.5564 49.52 42.03 42.39
391 49 3 0.5564 48.83 41.60 41.12
392 49 4 -1.1128 48.80 41.81 41.96
393 50 2 0.0000 40.41 33.75 45.68
394 50 3 0.5564 41.24 34.22 45.77
395 50 3 0.5564 39.74 34.41 45.85
396 50 4 -1.1128 40.43 33.90 45.71
397 51 2 0.0000 63.31 58.75 73.21
398 51 3 0.5564 63.16 59.15 74.06
399 51 3 0.5564 63.88 58.00 73.39
400 51 4 -1.1128 63.37 58.70 73.35
401 52 2 0.0000 48.07 36.26 57.27
402 52 3 0.5564 48.96 36.15 56.93
403 52 3 0.5564 47.84 35.40 57.62
404 52 4 -1.1128 48.16 36.13 57.28
405 53 2 0.0000 31.70 65.80 34.55
406 53 3 0.5564 32.30 66.12 33.88
407 53 3 0.5564 31.46 64.92 34.26
408 53 4 -1.1128 31.75 65.72 34.42
409 54 2 0.0000 35.12 45.11 73.80
410 54 3 0.5564 35.65 45.87 73.57
411 54 3 0.5564 35.15 44.55 73.02
412 54 4 -1.1128 35.19 45.14 73.67
413 55 2 0.0000 65.74 43.12 28.06
414 55 3 0.5564 65.32 42.84 28.88
415 55 3 0.5564 65.88 42.30 27.58
416 55 4 -1.1128 65.70 42.97 28.11
417 56 2 0.0000 37.27 63.31 50.71
418 56 3 0.5564 38.06 63.41 50.17
419 56 3 0.5564 36.93 62.45 50.46
420 56 4 -1.1128 37.33 63.21 50.61
421 57 2 0.0000 50.50 59.53 21.74
422 57 3 0.5564 50.94 60.01 22.45
423 57 3 0.5564 50.66 58.61 21.95
424 57 4 -1.1128 50.58 59.47 21.86
425 58 2 0.0000 61.88 52.19 50.15
426 58 3 0.5564 61.10 52.53 50.60
427 58 3 0.5564 62.16 51.45 50.69
428 58 4 -1.1128 61.81 52.14 50.28
429 59 2 0.0000 30.33 59.72 48.48
430 59 3 0.5564 31.05 60.25 48.82
431 59 3 0.5564 29.59 60.32 48.42
432 59 4 -1.1128 30.33 59.87 48.51
433 60 2 0.0000 50.69 38.43 56.48
434 60 3 0.5564 50.09 38.66 55.77
435 60 3 0.5564 50.78 37.48 56.42
436 60 4 -1.1128 50.62 38.33 56.38
437 61 2 0.0000 48.52 56.74 24.06
438 61 3 0.5564 47.76 57.11 23.61
439 61 3 0.5564 48.85 57.45 24.60
440 61 4 -1.1128 48.46 56.88 24.07
441 62 2 0.0000 34.44 57.96 53.83
442 62 3 0.5564 34.35 57.33 54.55
443 62 3 0.5564 33.69 58.54 53.92
444 62 4 -1.1128 34.33 57.95 53.94
445 63 2 0.0000 56.01 49.17 73.08
446 63 3 0.5564 56.28 50.07 73.24
447 63 3 0.5564 55.61 48.89 73.91
448 63 4 -1.1128 55.99 49.25 73.21
449 64 2 0.0000 39.18 45.84 39.98
450 64 3 0.5564 39.62 45.05 40.31
451 64 3 0.5564 39.89 46.48 39.88
452 64 4 -1.1128 39.33 45.82 40.01
453 65 2 0.0000 37.26 51.78 50.08
454 65 3 0.5564 36.83 51.41 49.31
455 65 3 0.5564 37.41 52.70 49.85
456 65 4 -1.1128 37.22 51.85 49.95
457 66 2 0.0000 44.87 46.09 27.80
458 66 3 0.5564 45.13 46.98 28.02
459 66 3 0.5564 45.33 45.90 26.98
460 66 4 -1.1128 44.96 46.18 27.72
461 67 2 0.0000 49.87 35.21 51.15
462 67 3 0.5564 50.40 35.95 51.42
463 67 3 0.5564 48.97 35.54 51.17
464 67 4 -1.1128 49.82 35.35 51.19
465 68 2 0.0000 62.76 37.95 53.39
466 68 3 0.5564 63.02 37.27 52.76
467 68 3 0.5564 63.27 37.74 54.18
468 68 4 -1.1128 62.86 37.83 53.41
469 69 2 0.0000 64.71 43.89 73.59
470 69 3 0.5564 64.93 42.98 73.42
471 69 3 0.5564 65.21 44.39 72.94
472 69 4 -1.1128 64.80 43.84 73.48
473 70 2 0.0000 33.19 66.74 32.39
474 70 3 0.5564 33.27 67.69 32.23
475 70 3 0.5564 32.79 66.40 31.59
476 70 4 -1.1128 33.15 66.82 32.26
477 71 2 0.0000 56.06 44.76 42.99
478 71 3 0.5564 55.21 44.37 43.18
479 71 3 0.5564 56.45 44.92 43.86
480 71 4 -1.1128 56.00 44.73 43.13
481 72 2 0.0000 51.20 66.93 44.80
482 72 3 0.5564 50.28 66.92 44.56
483 72 3 0.5564 51.21 66.95 45.75
484 72 4 -1.1128 51.08 66.93 44.89
485 73 2 0.0000 43.84 34.41 67.87
486 73 3 0.5564 43.60 33.54 67.55
487 73 3 0.5564 43.08 34.96 67.67
488 73 4 -1.1128 43.71 34.37 67.80
489 74 2 0.0000 37.06 42.39 50.04
490 74 3 0.5564 36.75 42.84 50.82
491 74 3 0.5564 36.27 42.17 49.55
492 74 4 -1.1128 36.91 42.42 50.08
493 75 2 0.0000 42.41 62.28 43.42
494 75 3 0.5564 41.97 63.13 43.44
495 75 3 0.5564 42.90 62.28 42.59
496 75 4 -1.1128 42.42 62.39 43.31
497 76 2 0.0000 54.44 37.11 70.08
498 76 3 0.5564 54.49 37.25 69.13
499 76 3 0.5564 55.13 36.48 70.27
500 76 4 -1.1128 54.54 37.05 69.98
501 77 2 0.0000 35.03 43.88 32.19
502 77 3 0.5564 34.79 43.20 32.82
503 77 3 0.5564 35.85 43.56 31.80
504 77 4 -1.1128 35.11 43.75 32.22
505 78 2 0.0000 63.04 47.17 40.77
506 78 3 0.5564 63.16 46.43 41.37
507 78 3 0.5564 63.08 46.78 39.90
508 78 4 -1.1128 63.06 47.02 40.73
509 79 2 0.0000 43.22 39.75 66.39
510 79 3 0.5564 43.75 39.47 67.13
511 79 3 0.5564 42.33 39.47 66.61
512 79 4 -1.1128 43.17 39.68 66.52
513 80 2 0.0000 44.27 39.21 51.71
514 80 3 0.5564 44.13 38.29 51.96
515 80 3 0.5564 45.01 39.49 52.26
516 80 4 -1.1128 44.35 39.12 51.82
517 81 2 0.0000 33.73 35.23 43.51
518 81 3 0.5564 33.16 34.49 43.72
519 81 3 0.5564 33.26 35.73 42.85
520 81 4 -1.1128 33.60 35.20 43.45
521 82 2 0.0000 33.70 36.98 45.67
522 82 3 0.5564 32.95 36.67 46.19
523 82 3 0.5564 33.77 36.36 44.95
524 82 4 -1.1128 33.61 36.86 45.65
525 83 2 0.0000 58.57 62.25 29.09
526 83 3 0.5564 59.26 61.59 28.96
527 83 3 0.5564 58.99 62.92 29.63
528 83 4 -1.1128 58.72 62.25 29.15
529 84 2 0.0000 32.47 43.76 34.73
530 84 3 0.5564 33.16 44.04 35.33
531 84 3 0.5564 31.69 43.70 35.28
532 84 4 -1.1128 32.45 43.79 34.89
533 85 2 0.0000 54.78 30.79 52.29
534 85 3 0.5564 54.90 29.87 52.07
535 85 3 0.5564 55.00 31.26 51.49
536 85 4 -1.1128 54.83 30.73 52.16
537 86 2 0.0000 54.12 44.01 50.00
538 86 3 0.5564 54.54 43.91 50.86
539 86 3 0.5564 53.52 43.27 49.94
540 86 4 -1.1128 54.09 43.90 50.11
541 87 2 0.0000 30.40 42.30 21.39
542 87 3 0.5564 31.24 42.18 21.82
543 87 3 0.5564 29.87 42.77 22.03
544 87 4 -1.1128 30.44 42.34 21.53
545 88 2 0.0000 41.61 36.07 67.35
546 88 3 0.5564 40.81 35.59 67.58
547 88 3 0.5564 41.32 36.98 67.25
548 88 4 -1.1128 41.46 36.13 67.37
549 89 2 0.0000 54.73 44.19 47.30
550 89 3 0.5564 54.91 45.12 47.12
551 89 3 0.5564 54.47 44.17 48.22
552 89 4 -1.1128 54.72 44.31 47.39
553 90 2 0.0000 46.88 42.60 22.35
554 90 3 0.5564 46.22 43.20 22.69
555 90 3 0.5564 47.59 42.63 22.99
556 90 4 -1.1128 46.89 42.68 22.48
557 91 2 0.0000 35.40 58.15 30.20
558 91 3 0.5564 35.19 59.04 29.93
559 91 3 0.5564 36.21 58.24 30.70
560 91 4 -1.1128 35.48 58.28 30.23
561 92 2 0.0000 55.63 53.34 25.78
562 92 3 0.5564 55.01 53.24 26.50
563 92 3 0.5564 55.08 53.57 25.02
564 92 4 -1.1128 55.47 53.36 25.77
565 93 2 0.0000 57.25 56.93 70.34
566 93 3 0.5564 57.29 57.69 70.91
567 93 3 0.5564 56.70 56.31 70.81
568 93 4 -1.1128 57.18 56.95 70.47
569 94 2 0.0000 65.86 62.29 42.68
570 94 3 0.5564 66.80 62.40 42.80
571 94 3 0.5564 65.46 62.90 43.30
572 94 4 -1.1128 65.93 62.39 42.78
573 95 2 0.0000 59.49 39.54 55.36
574 95 3 0.5564 60.16 40.13 55.69
575 95 3 0.5564 59.71 39.40 54.44
576 95 4 -1.1128 59.61 39.60 55.28
577 96 2 0.0000 33.48 39.61 37.98
578 96 3 0.5564 33.28 39.49 37.05
579 96 3 0.5564 32.65 39.46 38.43
580 96 4 -1.1128 33.35 39.58 37.91
581 97 2 0.0000 49.20 30.40 27.51
582 97 3 0.5564 49.20 31.12 26.88
583 97 3 0.5564 48.33 30.43 27.91
584 97 4 -1.1128 49.09 30.50 27.48
585 98 2 0.0000 66.54 47.82 39.24
586 98 3 0.5564 67.49 47.88 39.24
587 98 3 0.5564 66.25 48.64 39.65
588 98 4 -1.1128 66.63 47.94 39.30
589 99 2 0.0000 55.26 65.47 39.44
590 99 3 0.5564 55.59 64.87 40.10
591 99 3 0.5564 55.75 66.28 39.59
592 99 4 -1.1128 55.37 65.50 39.54
593 100 2 0.0000 61.22 49.39 20.61
594 100 3 0.5564 61.43 49.17 21.52
595 100 3 0.5564 60.68 50.18 20.67
596 100 4 -1.1128 61.18 49.46 20.74
597 101 2 0.0000 55.75 46.70 46.73
598 101 3 0.5564 56.45 46.38 46.16
599 101 3 0.5564 56.05 47.56 47.03
600 101 4 -1.1128 55.88 46.77 46.69
601 102 2 0.0000 48.71 54.01 23.42
602 102 3 0.5564 49.62 53.74 23.50
603 102 3 0.5564 48.70 54.91 23.76
604 102 4 -1.1128 48.83 54.09 23.48
605 103 2 0.0000 60.69 36.79 65.65
606 103 3 0.5564 59.83 36.66 65.24
607 103 3 0.5564 60.82 35.99 66.17
608 103 4 -1.1128 60.59 36.66 65.66
609 104 2 0.0000 42.28 40.44 32.40
610 104 3 0.5564 42.46 41.09 33.08
611 104 3 0.5564 41.72 40.90 31.77
612 104 4 -1.1128 42.23 40.59 32.41
613 105 2 0.0000 60.41 49.72 63.12
614 105 3 0.5564 59.68 50.08 63.63
615 105 3 0.5564 60.61 50.39 62.47
616 105 4 -1.1128 60.34 49.86 63.10
617 106 2 0.0000 63.45 42.40 42.39
618 106 3 0.5564 62.94 42.31 41.59
619 106 3 0.5564 64.29 42.00 42.18
620 106 4 -1.1128 63.49 42.33 42.26
621 107 2 0.0000 65.99 35.86 72.48
622 107 3 0.5564 65.24 35.85 73.08
623 107 3 0.5564 66.42 35.02 72.63
624 107 4 -1.1128 65.95 35.75 72.58
625 108 2 0.0000 40.06 56.36 62.83
626 108 3 0.5564 39.41 56.03 63.45
627 108 3 0.5564 40.88 55.96 63.11
628 108 4 -1.1128 40.08 56.27 62.95
629 109 2 0.0000 34.63 40.00 76.09
630 109 3 0.5564 33.75 39.85 76.43
631 109 3 0.5564 35.16 40.14 76.87
632 109 4 -1.1128 34.58 40.00 76.24
633 110 2 0.0000 51.35 34.99 22.21
634 110 3 0.5564 51.29 35.85 22.63
635 110 3 0.5564 51.08 35.13 21.31
636 110 4 -1.1128 51.31 35.12 22.15
637 111 2 0.0000 59.05 67.20 25.98
638 111 3 0.5564 58.26 66.66 25.95
639 111 3 0.5564 58.74 68.09 25.79
640 111 4 -1.1128 58.91 67.25 25.95
641 112 2 0.0000 65.25 67.75 45.75
642 112 3 0.5564 64.38 67.99 46.06
643 112 3 0.5564 65.73 68.58 45.73
644 112 4 -1.1128 65.20 67.89 45.79
645 113 2 0.0000 34.87 61.07 76.19
646 113 3 0.5564 34.44 61.76 76.70
647 113 3 0.5564 34.18 60.73 75.61
648 113 4 -1.1128 34.72 61.11 76.18
649 114 2 0.0000 33.80 41.81 42.83
650 114 3 0.5564 33.59 40.88 42.80
651 114 3 0.5564 33.82 42.02 43.77
652 114 4 -1.1128 33.77 41.71 42.95
653 115 2 0.0000 36.77 46.49 45.00
654 115 3 0.5564 37.34 46.84 44.32
655 115 3 0.5564 36.86 45.54 44.92
656 115 4 -1.1128 36.85 46.41 44.90
657 116 2 0.0000 56.21 55.35 31.75
658 116 3 0.5564 55.66 55.69 32.46
659 116 3 0.5564 56.57 56.13 31.34
660 116 4 -1.1128 56.18 55.50 31.79
661 117 2 0.0000 32.04 63.54 57.89
662 117 3 0.5564 32.32 62.67 57.62
663 117 3 0.5564 31.09 63.54 57.76
664 117 4 -1.1128 31.95 63.43 57.84
665 118 2 0.0000 47.63 34.37 63.31
666 118 3 0.5564 47.92 33.63 63.84
667 118 3 0.5564 46.68 34.34 63.36
668 118 4 -1.1128 47.54 34.27 63.39
669 119 2 0.0000 51.29 40.62 30.46
670 119 3 0.5564 51.62 39.73 30.31
671 119 3 0.5564 51.83 41.18 29.90
672 119 4 -1.1128 51.40 40.57 30.37
673 120 2 0.0000 52.24 30.78 53.35
674 120 3 0.5564 53.11 30.79 52.94
675 120 3 0.5564 51.78 31.50 52.92
676 120 4 -1.1128 52.30 30.87 53.24
677 121 2 0.0000 32.12 63.43 28.93
678 121 3 0.5564 32.20 62.74 29.59
679 121 3 0.5564 31.58 63.05 28.24
680 121 4 -1.1128 32.06 63.29 28.92
681 122 2 0.0000 53.09 38.71 36.61
682 122 3 0.5564 52.53 38.62 35.85
683 122 3 0.5564 53.96 38.89 36.26
684 122 4 -1.1128 53.13 38.72 36.47
685 123 2 0.0000 30.15 31.82 73.18
686 123 3 0.5564 30.74 32.27 72.57
687 123 3 0.5564 30.65 31.74 73.99
688 123 4 -1.1128 30.29 31.87 73.20
689 124 2 0.0000 32.64 35.69 39.08
690 124 3 0.5564 33.39 36.28 38.97
691 124 3 0.5564 31.92 36.14 38.63
692 124 4 -1.1128 32.64 35.83 39.00
693 125 2 0.0000 54.11 60.24 60.04
694 125 3 0.5564 53.16 60.40 60.01
695 125 3 0.5564 54.35 60.05 59.13
696 125 4 -1.1128 54.02 60.23 59.92
697 126 2 0.0000 41.70 32.68 23.30
698 126 3 0.5564 41.93 33.20 22.53
699 126 3 0.5564 42.54 32.44 23.68
700 126 4 -1.1128 41.84 32.72 23.25
701 127 2 0.0000 44.73 67.55 58.34
702 127 3 0.5564 44.59 66.79 58.91
703 127 3 0.5564 44.27 68.27 58.78
704 127 4 -1.1128 44.65 67.55 58.47
705 128 2 0.0000 58.14 52.76 55.32
706 128 3 0.5564 58.53 53.36 55.94
707 128 3 0.5564 57.30 52.52 55.70
708 128 4 -1.1128 58.08 52.80 55.45
709 129 2 0.0000 48.52 66.23 55.29
710 129 3 0.5564 48.23 67.15 55.27
711 129 3 0.5564 48.73 66.03 54.38
712 129 4 -1.1128 48.51 66.33 55.17
713 130 2 0.0000 49.82 40.39 34.40
714 130 3 0.5564 50.23 41.25 34.30
715 130 3 0.5564 49.45 40.20 33.53
716 130 4 -1.1128 49.82 40.48 34.27
717 131 2 0.0000 65.98 60.63 46.58
718 131 3 0.5564 66.41 60.11 45.90
719 131 3 0.5564 66.17 61.54 46.34
720 131 4 -1.1128 66.06 60.68 46.46
721 132 2 0.0000 39.26 31.81 72.34
722 132 3 0.5564 39.84 32.01 73.07
723 132 3 0.5564 38.58 31.25 72.72
724 132 4 -1.1128 39.24 31.76 72.48
725 133 2 0.0000 60.63 61.37 53.70
726 133 3 0.5564 61.01 60.53 53.95
727 133 3 0.5564 60.46 61.29 52.76
728 133 4 -1.1128 60.66 61.25 53.61
729 134 2 0.0000 60.60 56.43 20.23
730 134 3 0.5564 61.18 57.19 20.24
731 134 3 0.5564 59.77 56.77 19.89
732 134 4 -1.1128 60.57 56.58 20.19
733 135 2 0.0000 34.58 44.80 24.76
734 135 3 0.5564 33.84 44.38 25.21
735 135 3 0.5564 34.49 44.54 23.85
736 135 4 -1.1128 34.47 44.71 24.70
737 136 2 0.0000 42.54 34.72 31.96
738 136 3 0.5564 42.29 34.03 32.58
739 136 3 0.5564 43.40 35.01 32.26
740 136 4 -1.1128 42.62 34.67 32.08
741 137 2 0.0000 66.56 51.61 44.57
742 137 3 0.5564 65.83 51.29 45.09
743 137 3 0.5564 66.54 52.56 44.70
744 137 4 -1.1128 66.46 51.70 44.66
745 138 2 0.0000 40.13 56.25 77.10
746 138 3 0.5564 40.36 56.04 78.01
747 138 3 0.5564 39.69 57.10 77.15
748 138 4 -1.1128 40.10 56.33 77.23
749 139 2 0.0000 63.30 47.38 66.57
750 139 3 0.5564 63.09 48.11 65.99
751 139 3 0.5564 63.35 47.77 67.44
752 139 4 -1.1128 63.28 47.53 66.61
753 140 2 0.0000 48.12 51.04 74.02
754 140 3 0.5564 48.60 50.47 74.62
755 140 3 0.5564 47.23 51.06 74.38
756 140 4 -1.1128 48.06 50.97 74.15
757 141 2 0.0000 56.87 51.21 27.10
758 141 3 0.5564 57.83 51.22 27.06
759 141 3 0.5564 56.60 51.97 26.59
760 141 4 -1.1128 56.96 51.31 27.03
761 142 2 0.0000 64.57 53.88 67.05
762 142 3 0.5564 65.50 53.82 67.25
763 142 3 0.5564 64.37 54.82 67.13
764 142 4 -1.1128 64.66 54.00 67.09
765 143 2 0.0000 37.77 39.50 56.35
766 143 3 0.5564 37.10 39.15 55.76
767 143 3 0.5564 37.29 39.79 57.12
768 143 4 -1.1128 37.62 39.49 56.37
769 144 2 0.0000 67.56 50.85 48.13
770 144 3 0.5564 67.40 50.25 47.40
771 144 3 0.5564 67.87 51.65 47.72
772 144 4 -1.1128 67.58 50.88 47.98
773 145 2 0.0000 57.91 63.14 53.06
774 145 3 0.5564 57.82 62.23 53.33
775 145 3 0.5564 57.70 63.65 53.84
776 145 4 -1.1128 57.87 63.09 53.20
777 146 2 0.0000 54.25 33.81 59.29
778 146 3 0.5564 54.82 33.97 58.54
779 146 3 0.5564 54.42 34.54 59.88
780 146 4 -1.1128 54.35 33.93 59.27
781 147 2 0.0000 59.75 53.09 51.65
782 147 3 0.5564 60.33 53.54 52.26
783 147 3 0.5564 59.72 52.18 51.97
784 147 4 -1.1128 59.83 53.03 51.77
785 148 2 0.0000 38.03 39.28 39.66
786 148 3 0.5564 38.80 39.68 40.07
787 148 3 0.5564 37.41 39.16 40.38
788 148 4 -1.1128 38.05 39.32 39.81
789 149 2 0.0000 40.12 44.43 52.96
790 149 3 0.5564 40.90 44.99 52.88
791 149 3 0.5564 40.08 44.21 53.89
792 149 4 -1.1128 40.22 44.47 53.07
793 150 2 0.0000 45.15 38.52 75.13
794 150 3 0.5564 44.41 37.94 75.30
795 150 3 0.5564 45.78 37.97 74.66
796 150 4 -1.1128 45.14 38.37 75.09
797 151 2 0.0000 46.10 54.30 36.33
798 151 3 0.5564 45.42 54.26 37.00
799 151 3 0.5564 45.96 53.52 35.80
800 151 4 -1.1128 46.00 54.19 36.35
801 152 2 0.0000 51.56 55.29 41.00
802 152 3 0.5564 50.64 55.42 40.80
803 152 3 0.5564 51.94 54.96 40.19
804 152 4 -1.1128 51.49 55.26 40.87
805 153 2 0.0000 43.26 42.19 34.43
806 153 3 0.5564 43.72 43.02 34.31
807 153 3 0.5564 42.78 42.30 35.25
808 153 4 -1.1128 43.26 42.32 34.52
809 154 2 0.0000 54.84 60.59 26.32
810 154 3 0.5564 55.75 60.72 26.06
811 154 3 0.5564 54.35 61.24 25.82
812 154 4 -1.1128 54.89 60.69 26.22
813 155 2 0.0000 41.94 36.27 64.61
814 155 3 0.5564 42.01 36.11 65.55
815 155 3 0.5564 42.54 37.00 64.44
816 155 4 -1.1128 42.03 36.34 64.71
817 156 2 0.0000 66.58 30.55 36.98
818 156 3 0.5564 65.68 30.54 37.31
819 156 3 0.5564 66.51 30.89 36.09
820 156 4 -1.1128 66.45 30.59 36.91
821 157 2 0.0000 66.60 41.96 42.84
822 157 3 0.5564 66.28 42.26 43.69
823 157 3 0.5564 67.09 41.16 43.04
824 157 4 -1.1128 66.62 41.89 42.98
825 158 2 0.0000 33.13 60.57 26.99
826 158 3 0.5564 33.39 61.44 26.70
827 158 3 0.5564 33.73 59.98 26.53
828 158 4 -1.1128 33.25 60.61 26.89
829 159 2 0.0000 39.34 38.35 24.56
830 159 3 0.5564 39.10 37.46 24.30
831 159 3 0.5564 39.27 38.86 23.75
832 159 4 -1.1128 39.30 38.30 24.42
833 160 2 0.0000 31.50 45.49 28.01
834 160 3 0.5564 32.14 45.87 28.61
835 160 3 0.5564 30.85 45.07 28.58
836 160 4 -1.1128 31.50 45.48 28.17
837 161 2 0.0000 65.18 34.94 46.67
838 161 3 0.5564 64.70 35.73 46.89
839 161 3 0.5564 65.98 34.99 47.19
840 161 4 -1.1128 65.22 35.05 46.77
841 162 2 0.0000 46.49 51.41 70.32
842 162 3 0.5564 45.63 51.00 70.34
843 162 3 0.5564 46.51 51.87 69.47
844 162 4 -1.1128 46.38 51.42 70.21
845 163 2 0.0000 48.52 37.53 68.70
846 163 3 0.5564 48.09 37.07 67.98
847 163 3 0.5564 48.50 38.45 68.44
848 163 4 -1.1128 48.46 37.59 68.57
849 164 2 0.0000 42.88 34.75 50.98
850 164 3 0.5564 42.33 34.89 50.21
851 164 3 0.5564 42.29 34.34 51.62
852 164 4 -1.1128 42.73 34.71 50.96
853 165 2 0.0000 46.94 40.98 65.79
854 165 3 0.5564 47.33 41.63 65.20
855 165 3 0.5564 46.71 40.25 65.22
856 165 4 -1.1128 46.96 40.97 65.64
857 166 2 0.0000 30.23 34.67 52.57
858 166 3 0.5564 29.42 34.16 52.57
859 166 3 0.5564 30.52 34.64 53.48
860 166 4 -1.1128 30.16 34.60 52.69
861 167 2 0.0000 42.46 43.30 42.16
862 167 3 0.5564 43.14 43.08 41.52
863 167 3 0.5564 42.52 42.60 42.82
864 167 4 -1.1128 42.55 43.18 42.16
865 168 2 0.0000 40.93 44.84 63.13
866 168 3 0.5564 41.51 44.47 62.47
867 168 3 0.5564 40.86 44.16 63.79
868 168 4 -1.1128 41.00 44.70 63.13
869 169 2 0.0000 50.39 55.97 54.35
870 169 3 0.5564 49.90 56.09 53.54